 CRYSTAL
 PRIMVEC
-1.4167556 1.4167556 1.4167556
1.4167556 -1.4167556 1.4167556
1.4167556 1.4167556 -1.4167556
 PRIMCOORD
           1  1
  26  .0000000 .0000000 .0000000
 
